<?xml version="1.0" encoding="UTF-8"?>

<!-- generated on 2025-10-20 15:08:02 by Eclipse SUMO GUI Version 1.24.0
<sumoConfiguration xmlns:xsi="http://www.w3.org/2001/XMLSchema-instance" xsi:noNamespaceSchemaLocation="http://sumo.dlr.de/xsd/sumoConfiguration.xsd">

    <input>
        <net-file value="maps/city3.net.xml"/>
        <route-files value="maps/city3.rou.xml"/>
    </input>

    <output>
        <tripinfo-output value="tripinfo.xml"/>
    </output>

    <time>
        <begin value="0"/>
        <end value="200"/>
    </time>

    <report>
        <verbose value="true"/>
        <no-step-log value="true"/>
    </report>

    <traci_server>
        <remote-port value="59052"/>
    </traci_server>

</sumoConfiguration>
-->

<tripinfos xmlns:xsi="http://www.w3.org/2001/XMLSchema-instance" xsi:noNamespaceSchemaLocation="http://sumo.dlr.de/xsd/tripinfo_file.xsd">
    <tripinfo id="7" depart="7.00" departLane="gneE18_0" departPos="5.10" departSpeed="0.00" departDelay="0.00" arrival="33.00" arrivalLane="gneE19_0" arrivalPos="193.60" arrivalSpeed="14.65" duration="26.00" routeLength="286.55" waitingTime="0.00" waitingCount="0" stopTime="0.00" timeLoss="6.87" rerouteNo="0" devices="tripinfo_7" vType="DEFAULT_VEHTYPE" speedFactor="1.08" vaporized=""/>
    <tripinfo id="13" depart="13.00" departLane="-gneE19_0" departPos="5.10" departSpeed="0.00" departDelay="0.00" arrival="40.00" arrivalLane="-gneE18_0" arrivalPos="95.47" arrivalSpeed="13.40" duration="27.00" routeLength="291.71" waitingTime="0.00" waitingCount="0" stopTime="0.00" timeLoss="5.90" rerouteNo="0" devices="tripinfo_13" vType="DEFAULT_VEHTYPE" speedFactor="1.03" vaporized=""/>
    <tripinfo id="57" depart="57.00" departLane="gneE43_0" departPos="5.10" departSpeed="0.00" departDelay="0.00" arrival="64.00" arrivalLane="gneE43_0" arrivalPos="58.50" arrivalSpeed="11.52" duration="7.00" routeLength="53.40" waitingTime="0.00" waitingCount="0" stopTime="0.00" timeLoss="2.52" rerouteNo="0" devices="tripinfo_57" vType="DEFAULT_VEHTYPE" speedFactor="0.89" vaporized=""/>
    <tripinfo id="64" depart="64.00" departLane="gneE41_0" departPos="5.10" departSpeed="0.00" departDelay="0.00" arrival="71.00" arrivalLane="gneE41_0" arrivalPos="48.64" arrivalSpeed="11.25" duration="7.00" routeLength="43.54" waitingTime="0.00" waitingCount="0" stopTime="0.00" timeLoss="2.59" rerouteNo="0" devices="tripinfo_64" vType="DEFAULT_VEHTYPE" speedFactor="0.87" vaporized=""/>
    <tripinfo id="92" depart="92.00" departLane="-gneE42_0" departPos="5.10" departSpeed="0.00" departDelay="0.00" arrival="100.00" arrivalLane="-gneE42_0" arrivalPos="64.90" arrivalSpeed="12.42" duration="8.00" routeLength="59.80" waitingTime="0.00" waitingCount="0" stopTime="0.00" timeLoss="2.75" rerouteNo="0" devices="tripinfo_92" vType="DEFAULT_VEHTYPE" speedFactor="0.90" vaporized=""/>
    <tripinfo id="4" depart="4.00" departLane="-gneE43_0" departPos="5.10" departSpeed="0.00" departDelay="0.00" arrival="104.00" arrivalLane="-gneE11_0" arrivalPos="130.77" arrivalSpeed="11.73" duration="100.00" routeLength="705.67" waitingTime="32.00" waitingCount="1" stopTime="0.00" timeLoss="44.00" rerouteNo="0" devices="tripinfo_4" vType="DEFAULT_VEHTYPE" speedFactor="0.94" vaporized=""/>
    <tripinfo id="74" depart="74.00" departLane="-gneE26_0" departPos="5.10" departSpeed="0.00" departDelay="0.00" arrival="112.00" arrivalLane="-gneE4_0" arrivalPos="189.60" arrivalSpeed="15.78" duration="38.00" routeLength="483.12" waitingTime="0.00" waitingCount="0" stopTime="0.00" timeLoss="7.85" rerouteNo="0" devices="tripinfo_74" vType="DEFAULT_VEHTYPE" speedFactor="1.18" vaporized=""/>
    <tripinfo id="26" depart="26.00" departLane="-gneE32_0" departPos="5.10" departSpeed="0.00" departDelay="0.00" arrival="114.00" arrivalLane="gneE5_0" arrivalPos="189.60" arrivalSpeed="11.59" duration="88.00" routeLength="901.66" waitingTime="0.00" waitingCount="0" stopTime="0.00" timeLoss="12.91" rerouteNo="0" devices="tripinfo_26" vType="DEFAULT_VEHTYPE" speedFactor="0.89" vaporized=""/>
    <tripinfo id="100" depart="100.00" departLane="gneE5_0" departPos="5.10" departSpeed="0.00" departDelay="0.00" arrival="117.00" arrivalLane="gneE5_0" arrivalPos="189.60" arrivalSpeed="13.84" duration="17.00" routeLength="184.50" waitingTime="0.00" waitingCount="0" stopTime="0.00" timeLoss="3.58" rerouteNo="0" devices="tripinfo_100" vType="DEFAULT_VEHTYPE" speedFactor="1.04" vaporized=""/>
    <tripinfo id="41" depart="41.00" departLane="gneE11_0" departPos="5.10" departSpeed="0.00" departDelay="0.00" arrival="120.00" arrivalLane="gneE45_0" arrivalPos="86.58" arrivalSpeed="14.06" duration="79.00" routeLength="836.70" waitingTime="4.00" waitingCount="1" stopTime="0.00" timeLoss="20.43" rerouteNo="0" devices="tripinfo_41" vType="DEFAULT_VEHTYPE" speedFactor="1.05" vaporized=""/>
    <tripinfo id="52" depart="52.00" departLane="-gneE32_0" departPos="5.10" departSpeed="0.00" departDelay="0.00" arrival="130.00" arrivalLane="gneE25_0" arrivalPos="96.80" arrivalSpeed="15.85" duration="78.00" routeLength="1006.41" waitingTime="0.00" waitingCount="0" stopTime="0.00" timeLoss="14.92" rerouteNo="0" devices="tripinfo_52" vType="DEFAULT_VEHTYPE" speedFactor="1.16" vaporized=""/>
    <tripinfo id="130" depart="130.00" departLane="gneE41_0" departPos="5.10" departSpeed="0.00" departDelay="0.00" arrival="151.00" arrivalLane="gneE44_0" arrivalPos="44.29" arrivalSpeed="13.30" duration="21.00" routeLength="214.51" waitingTime="0.00" waitingCount="0" stopTime="0.00" timeLoss="5.85" rerouteNo="0" devices="tripinfo_130" vType="DEFAULT_VEHTYPE" speedFactor="1.02" vaporized=""/>
    <tripinfo id="35" depart="35.00" departLane="-gneE26_0" departPos="5.10" departSpeed="0.00" departDelay="0.00" arrival="154.00" arrivalLane="gneE6_0" arrivalPos="191.47" arrivalSpeed="7.04" duration="119.00" routeLength="1284.54" waitingTime="2.00" waitingCount="1" stopTime="0.00" timeLoss="25.69" rerouteNo="0" devices="tripinfo_35" vType="DEFAULT_VEHTYPE" speedFactor="1.03" vaporized=""/>
    <tripinfo id="119" depart="119.00" departLane="gneE12_0" departPos="5.10" departSpeed="0.00" departDelay="0.00" arrival="159.00" arrivalLane="gneE24_0" arrivalPos="192.80" arrivalSpeed="13.31" duration="40.00" routeLength="487.70" waitingTime="0.00" waitingCount="0" stopTime="0.00" timeLoss="4.80" rerouteNo="0" devices="tripinfo_119" vType="DEFAULT_VEHTYPE" speedFactor="1.02" vaporized=""/>
    <tripinfo id="99" depart="99.00" departLane="gneE7_0" departPos="5.10" departSpeed="0.00" departDelay="0.00" arrival="163.00" arrivalLane="gneE41_0" arrivalPos="48.64" arrivalSpeed="13.56" duration="64.00" routeLength="776.27" waitingTime="0.00" waitingCount="0" stopTime="0.00" timeLoss="8.95" rerouteNo="0" devices="tripinfo_99" vType="DEFAULT_VEHTYPE" speedFactor="1.04" vaporized=""/>
    <tripinfo id="54" depart="54.00" departLane="-gneE45_0" departPos="5.10" departSpeed="0.00" departDelay="0.00" arrival="166.00" arrivalLane="gneE6_0" arrivalPos="191.47" arrivalSpeed="13.51" duration="112.00" routeLength="1246.35" waitingTime="0.00" waitingCount="0" stopTime="0.00" timeLoss="20.93" rerouteNo="0" devices="tripinfo_54" vType="DEFAULT_VEHTYPE" speedFactor="1.01" vaporized=""/>
    <tripinfo id="51" depart="51.00" departLane="gneE2_0" departPos="5.10" departSpeed="0.00" departDelay="0.00" arrival="174.00" arrivalLane="gneE18_0" arrivalPos="95.47" arrivalSpeed="12.54" duration="123.00" routeLength="1023.91" waitingTime="20.00" waitingCount="1" stopTime="0.00" timeLoss="41.27" rerouteNo="0" devices="tripinfo_51" vType="DEFAULT_VEHTYPE" speedFactor="0.94" vaporized=""/>
    <tripinfo id="137" depart="137.00" departLane="-gneE21_0" departPos="5.10" departSpeed="0.00" departDelay="0.00" arrival="177.00" arrivalLane="-gneE19_0" arrivalPos="193.60" arrivalSpeed="14.37" duration="40.00" routeLength="487.88" waitingTime="0.00" waitingCount="0" stopTime="0.00" timeLoss="7.12" rerouteNo="0" devices="tripinfo_137" vType="DEFAULT_VEHTYPE" speedFactor="1.08" vaporized=""/>
    <tripinfo id="89" depart="89.00" departLane="-gneE43_0" departPos="5.10" departSpeed="0.00" departDelay="0.00" arrival="187.00" arrivalLane="gneE11_0" arrivalPos="130.77" arrivalSpeed="15.82" duration="98.00" routeLength="1300.83" waitingTime="0.00" waitingCount="0" stopTime="0.00" timeLoss="17.86" rerouteNo="0" devices="tripinfo_89" vType="DEFAULT_VEHTYPE" speedFactor="1.18" vaporized=""/>
    <tripinfo id="76" depart="76.00" departLane="-gneE44_0" departPos="5.10" departSpeed="0.00" departDelay="0.00" arrival="189.00" arrivalLane="gneE17_0" arrivalPos="138.77" arrivalSpeed="13.75" duration="113.00" routeLength="1297.45" waitingTime="0.00" waitingCount="0" stopTime="0.00" timeLoss="17.97" rerouteNo="0" devices="tripinfo_76" vType="DEFAULT_VEHTYPE" speedFactor="1.01" vaporized=""/>
    <tripinfo id="98" depart="98.00" departLane="-gneE9_0" departPos="5.10" departSpeed="0.00" departDelay="0.00" arrival="190.00" arrivalLane="-gneE13_0" arrivalPos="496.80" arrivalSpeed="14.22" duration="92.00" routeLength="1138.89" waitingTime="0.00" waitingCount="0" stopTime="0.00" timeLoss="15.83" rerouteNo="0" devices="tripinfo_98" vType="DEFAULT_VEHTYPE" speedFactor="1.09" vaporized=""/>
    <tripinfo id="63" depart="63.00" departLane="-gneE11_0" departPos="5.10" departSpeed="0.00" departDelay="0.00" arrival="192.00" arrivalLane="gneE5_0" arrivalPos="189.60" arrivalSpeed="10.76" duration="129.00" routeLength="729.75" waitingTime="48.00" waitingCount="1" stopTime="0.00" timeLoss="63.71" rerouteNo="0" devices="tripinfo_63" vType="DEFAULT_VEHTYPE" speedFactor="0.83" vaporized=""/>
    <tripinfo id="103" depart="106.00" departLane="-gneE42_0" departPos="5.10" departSpeed="0.00" departDelay="3.00" arrival="199.00" arrivalLane="-gneE13_0" arrivalPos="496.80" arrivalSpeed="14.69" duration="93.00" routeLength="1101.89" waitingTime="0.00" waitingCount="0" stopTime="0.00" timeLoss="17.72" rerouteNo="0" devices="tripinfo_103" vType="DEFAULT_VEHTYPE" speedFactor="1.09" vaporized=""/>
    <tripinfo id="30" depart="30.00" departLane="gneE7_0" departPos="5.10" departSpeed="0.00" departDelay="0.00" arrival="202.00" arrivalLane="gneE25_0" arrivalPos="96.80" arrivalSpeed="11.60" duration="172.00" routeLength="879.64" waitingTime="74.00" waitingCount="1" stopTime="0.00" timeLoss="94.98" rerouteNo="0" devices="tripinfo_30" vType="DEFAULT_VEHTYPE" speedFactor="0.86" vaporized=""/>
    <tripinfo id="6" depart="6.00" departLane="-gneE11_0" departPos="5.10" departSpeed="0.00" departDelay="0.00" arrival="204.00" arrivalLane="-gneE23_0" arrivalPos="289.60" arrivalSpeed="13.70" duration="198.00" routeLength="1027.09" waitingTime="107.00" waitingCount="1" stopTime="0.00" timeLoss="123.01" rerouteNo="0" devices="tripinfo_6" vType="DEFAULT_VEHTYPE" speedFactor="1.01" vaporized=""/>
    <tripinfo id="75" depart="75.00" departLane="gneE7_0" departPos="5.10" departSpeed="0.00" departDelay="0.00" arrival="212.00" arrivalLane="gneE26_0" arrivalPos="296.04" arrivalSpeed="15.46" duration="137.00" routeLength="1078.88" waitingTime="42.00" waitingCount="1" stopTime="0.00" timeLoss="65.92" rerouteNo="0" devices="tripinfo_75" vType="DEFAULT_VEHTYPE" speedFactor="1.15" vaporized=""/>
    <tripinfo id="175" depart="175.00" departLane="gneE6_0" departPos="5.10" departSpeed="0.00" departDelay="0.00" arrival="216.00" arrivalLane="gneE18_0" arrivalPos="95.47" arrivalSpeed="12.32" duration="41.00" routeLength="428.15" waitingTime="0.00" waitingCount="0" stopTime="0.00" timeLoss="7.66" rerouteNo="0" devices="tripinfo_175" vType="DEFAULT_VEHTYPE" speedFactor="0.94" vaporized=""/>
    <tripinfo id="2" depart="2.00" departLane="gneE22_0" departPos="5.10" departSpeed="0.00" departDelay="0.00" arrival="229.00" arrivalLane="gneE27_0" arrivalPos="300.00" arrivalSpeed="14.02" duration="227.00" routeLength="1970.81" waitingTime="61.00" waitingCount="2" stopTime="0.00" timeLoss="90.90" rerouteNo="0" devices="tripinfo_2" vType="DEFAULT_VEHTYPE" speedFactor="1.06" vaporized=""/>
    <tripinfo id="133" depart="133.00" departLane="gneE13_0" departPos="5.10" departSpeed="0.00" departDelay="0.00" arrival="229.00" arrivalLane="gneE9_0" arrivalPos="192.80" arrivalSpeed="12.54" duration="96.00" routeLength="1128.90" waitingTime="0.00" waitingCount="0" stopTime="0.00" timeLoss="11.37" rerouteNo="0" devices="tripinfo_133" vType="DEFAULT_VEHTYPE" speedFactor="0.97" vaporized=""/>
    <tripinfo id="129" depart="129.00" departLane="-gneE32_0" departPos="5.10" departSpeed="0.00" departDelay="0.00" arrival="230.00" arrivalLane="gneE5_0" arrivalPos="189.60" arrivalSpeed="15.44" duration="101.00" routeLength="901.66" waitingTime="23.00" waitingCount="1" stopTime="0.00" timeLoss="41.80" rerouteNo="0" devices="tripinfo_129" vType="DEFAULT_VEHTYPE" speedFactor="1.14" vaporized=""/>
    <tripinfo id="107" depart="107.00" departLane="gneE5_0" departPos="5.10" departSpeed="0.00" departDelay="0.00" arrival="231.00" arrivalLane="gneE9_0" arrivalPos="192.80" arrivalSpeed="13.60" duration="124.00" routeLength="1329.22" waitingTime="8.00" waitingCount="1" stopTime="0.00" timeLoss="25.96" rerouteNo="0" devices="tripinfo_107" vType="DEFAULT_VEHTYPE" speedFactor="1.00" vaporized=""/>
    <tripinfo id="70" depart="70.00" departLane="-gneE46_0" departPos="5.10" departSpeed="0.00" departDelay="0.00" arrival="238.00" arrivalLane="gneE19_0" arrivalPos="193.60" arrivalSpeed="12.96" duration="168.00" routeLength="1780.10" waitingTime="0.00" waitingCount="0" stopTime="0.00" timeLoss="29.42" rerouteNo="0" devices="tripinfo_70" vType="DEFAULT_VEHTYPE" speedFactor="0.95" vaporized=""/>
    <tripinfo id="45" depart="45.00" departLane="-gneE2_0" departPos="5.10" departSpeed="0.00" departDelay="0.00" arrival="244.00" arrivalLane="gneE24_0" arrivalPos="192.80" arrivalSpeed="12.81" duration="199.00" routeLength="887.67" waitingTime="109.00" waitingCount="2" stopTime="0.00" timeLoss="128.27" rerouteNo="0" devices="tripinfo_45" vType="DEFAULT_VEHTYPE" speedFactor="0.93" vaporized=""/>
    <tripinfo id="50" depart="50.00" departLane="-gneE10_0" departPos="5.10" departSpeed="0.00" departDelay="0.00" arrival="247.00" arrivalLane="gneE32_0" arrivalPos="217.67" arrivalSpeed="12.84" duration="197.00" routeLength="1838.93" waitingTime="24.00" waitingCount="1" stopTime="0.00" timeLoss="52.72" rerouteNo="0" devices="tripinfo_50" vType="DEFAULT_VEHTYPE" speedFactor="0.94" vaporized=""/>
    <tripinfo id="90" depart="90.00" departLane="gneE22_0" departPos="5.10" departSpeed="0.00" departDelay="0.00" arrival="249.00" arrivalLane="gneE27_0" arrivalPos="300.00" arrivalSpeed="14.29" duration="159.00" routeLength="1970.81" waitingTime="0.00" waitingCount="0" stopTime="0.00" timeLoss="27.21" rerouteNo="0" devices="tripinfo_90" vType="DEFAULT_VEHTYPE" speedFactor="1.10" vaporized=""/>
    <tripinfo id="108" depart="108.00" departLane="gneE10_0" departPos="5.10" departSpeed="0.00" departDelay="0.00" arrival="259.00" arrivalLane="gneE32_0" arrivalPos="217.67" arrivalSpeed="12.13" duration="151.00" routeLength="1102.67" waitingTime="37.00" waitingCount="2" stopTime="0.00" timeLoss="60.59" rerouteNo="0" devices="tripinfo_108" vType="DEFAULT_VEHTYPE" speedFactor="0.90" vaporized=""/>
    <tripinfo id="250" depart="250.00" departLane="gneE14_0" departPos="5.10" departSpeed="0.00" departDelay="0.00" arrival="273.00" arrivalLane="-gneE11_0" arrivalPos="130.77" arrivalSpeed="12.16" duration="23.00" routeLength="225.90" waitingTime="0.00" waitingCount="0" stopTime="0.00" timeLoss="4.32" rerouteNo="0" devices="tripinfo_250" vType="DEFAULT_VEHTYPE" speedFactor="0.91" vaporized=""/>
    <tripinfo id="187" depart="187.00" departLane="-gneE4_0" departPos="5.10" departSpeed="0.00" departDelay="0.00" arrival="276.00" arrivalLane="-gneE14_0" arrivalPos="89.60" arrivalSpeed="13.91" duration="89.00" routeLength="824.61" waitingTime="8.00" waitingCount="1" stopTime="0.00" timeLoss="28.80" rerouteNo="0" devices="tripinfo_187" vType="DEFAULT_VEHTYPE" speedFactor="1.01" vaporized=""/>
    <tripinfo id="16" depart="16.00" departLane="-gneE8_0" departPos="5.10" departSpeed="0.00" departDelay="0.00" arrival="279.00" arrivalLane="gneE8_0" arrivalPos="192.80" arrivalSpeed="10.43" duration="263.00" routeLength="2116.24" waitingTime="42.00" waitingCount="2" stopTime="0.00" timeLoss="73.37" rerouteNo="0" devices="tripinfo_16" vType="DEFAULT_VEHTYPE" speedFactor="0.83" vaporized=""/>
    <tripinfo id="73" depart="73.00" departLane="-gneE9_0" departPos="5.10" departSpeed="0.00" departDelay="0.00" arrival="280.00" arrivalLane="gneE33_0" arrivalPos="194.82" arrivalSpeed="12.73" duration="207.00" routeLength="1710.15" waitingTime="34.00" waitingCount="3" stopTime="0.00" timeLoss="69.87" rerouteNo="0" devices="tripinfo_73" vType="DEFAULT_VEHTYPE" speedFactor="0.93" vaporized=""/>
    <tripinfo id="53" depart="53.00" departLane="-gneE2_0" departPos="5.10" departSpeed="0.00" departDelay="0.00" arrival="283.00" arrivalLane="-gneE7_0" arrivalPos="185.60" arrivalSpeed="13.63" duration="230.00" routeLength="1326.02" waitingTime="101.00" waitingCount="2" stopTime="0.00" timeLoss="133.78" rerouteNo="0" devices="tripinfo_53" vType="DEFAULT_VEHTYPE" speedFactor="1.02" vaporized=""/>
    <tripinfo id="162" depart="162.00" departLane="-gneE11_0" departPos="5.10" departSpeed="0.00" departDelay="0.00" arrival="283.00" arrivalLane="gneE33_0" arrivalPos="194.82" arrivalSpeed="13.02" duration="121.00" routeLength="1452.23" waitingTime="0.00" waitingCount="0" stopTime="0.00" timeLoss="16.07" rerouteNo="0" devices="tripinfo_162" vType="DEFAULT_VEHTYPE" speedFactor="1.02" vaporized=""/>
    <tripinfo id="43" depart="43.00" departLane="gneE7_0" departPos="5.10" departSpeed="0.00" departDelay="0.00" arrival="287.00" arrivalLane="gneE17_0" arrivalPos="138.77" arrivalSpeed="15.20" duration="244.00" routeLength="2055.62" waitingTime="40.00" waitingCount="2" stopTime="0.00" timeLoss="109.36" rerouteNo="0" devices="tripinfo_43" vType="DEFAULT_VEHTYPE" speedFactor="1.12" vaporized=""/>
    <tripinfo id="231" depart="231.00" departLane="-gneE32_0" departPos="5.10" departSpeed="0.00" departDelay="0.00" arrival="292.00" arrivalLane="-gneE4_0" arrivalPos="189.60" arrivalSpeed="13.42" duration="61.00" routeLength="703.03" waitingTime="0.00" waitingCount="0" stopTime="0.00" timeLoss="10.04" rerouteNo="0" devices="tripinfo_231" vType="DEFAULT_VEHTYPE" speedFactor="1.02" vaporized=""/>
    <tripinfo id="181" depart="181.00" departLane="gneE13_0" departPos="5.10" departSpeed="0.00" departDelay="0.00" arrival="294.00" arrivalLane="gneE17_0" arrivalPos="138.77" arrivalSpeed="12.97" duration="113.00" routeLength="1269.90" waitingTime="0.00" waitingCount="0" stopTime="0.00" timeLoss="14.69" rerouteNo="0" devices="tripinfo_181" vType="DEFAULT_VEHTYPE" speedFactor="0.96" vaporized=""/>
    <tripinfo id="158" depart="160.00" departLane="-gneE42_0" departPos="5.10" departSpeed="0.00" departDelay="2.00" arrival="298.00" arrivalLane="gneE24_0" arrivalPos="192.80" arrivalSpeed="13.67" duration="138.00" routeLength="411.08" waitingTime="94.00" waitingCount="1" stopTime="0.00" timeLoss="108.15" rerouteNo="0" devices="tripinfo_158" vType="DEFAULT_VEHTYPE" speedFactor="1.04" vaporized=""/>
    <tripinfo id="210" depart="210.00" departLane="-gneE42_0" departPos="5.10" departSpeed="0.00" departDelay="0.00" arrival="306.00" arrivalLane="gneE24_0" arrivalPos="192.80" arrivalSpeed="12.32" duration="96.00" routeLength="411.08" waitingTime="49.00" waitingCount="1" stopTime="0.00" timeLoss="64.05" rerouteNo="0" devices="tripinfo_210" vType="DEFAULT_VEHTYPE" speedFactor="0.98" vaporized=""/>
    <tripinfo id="48" depart="48.00" departLane="gneE7_0" departPos="5.10" departSpeed="0.00" departDelay="0.00" arrival="310.00" arrivalLane="gneE18_0" arrivalPos="95.47" arrivalSpeed="11.72" duration="262.00" routeLength="2154.86" waitingTime="40.00" waitingCount="2" stopTime="0.00" timeLoss="81.14" rerouteNo="0" devices="tripinfo_48" vType="DEFAULT_VEHTYPE" speedFactor="0.88" vaporized=""/>
    <tripinfo id="28" depart="28.00" departLane="-gneE24_0" departPos="5.10" departSpeed="0.00" departDelay="0.00" arrival="311.00" arrivalLane="gneE33_0" arrivalPos="194.82" arrivalSpeed="12.22" duration="283.00" routeLength="1615.31" waitingTime="129.00" waitingCount="2" stopTime="0.00" timeLoss="154.77" rerouteNo="0" devices="tripinfo_28" vType="DEFAULT_VEHTYPE" speedFactor="0.94" vaporized=""/>
    <tripinfo id="110" depart="112.00" departLane="gneE5_0" departPos="5.10" departSpeed="0.00" departDelay="2.00" arrival="315.00" arrivalLane="gneE21_0" arrivalPos="296.80" arrivalSpeed="11.33" duration="203.00" routeLength="2070.18" waitingTime="1.00" waitingCount="1" stopTime="0.00" timeLoss="29.84" rerouteNo="0" devices="tripinfo_110" vType="DEFAULT_VEHTYPE" speedFactor="0.88" vaporized=""/>
    <tripinfo id="306" depart="306.00" departLane="gneE11_0" departPos="5.10" departSpeed="0.00" departDelay="0.00" arrival="318.00" arrivalLane="gneE11_0" arrivalPos="130.77" arrivalSpeed="15.94" duration="12.00" routeLength="125.67" waitingTime="0.00" waitingCount="0" stopTime="0.00" timeLoss="4.11" rerouteNo="0" devices="tripinfo_306" vType="DEFAULT_VEHTYPE" speedFactor="1.18" vaporized=""/>
    <tripinfo id="139" depart="139.00" departLane="-gneE32_0" departPos="5.10" departSpeed="0.00" departDelay="0.00" arrival="324.00" arrivalLane="gneE23_0" arrivalPos="289.60" arrivalSpeed="6.57" duration="185.00" routeLength="1835.26" waitingTime="12.00" waitingCount="2" stopTime="0.00" timeLoss="53.38" rerouteNo="0" devices="tripinfo_139" vType="DEFAULT_VEHTYPE" speedFactor="1.02" vaporized=""/>
    <tripinfo id="179" depart="179.00" departLane="-gneE2_0" departPos="5.10" departSpeed="0.00" departDelay="0.00" arrival="326.00" arrivalLane="-gneE7_0" arrivalPos="185.60" arrivalSpeed="6.35" duration="147.00" routeLength="1326.02" waitingTime="27.00" waitingCount="2" stopTime="0.00" timeLoss="54.00" rerouteNo="0" devices="tripinfo_179" vType="DEFAULT_VEHTYPE" speedFactor="1.06" vaporized=""/>
    <tripinfo id="142" depart="142.00" departLane="-gneE5_0" departPos="5.10" departSpeed="0.00" departDelay="0.00" arrival="330.00" arrivalLane="gneE45_0" arrivalPos="86.58" arrivalSpeed="12.80" duration="188.00" routeLength="1433.11" waitingTime="58.00" waitingCount="1" stopTime="0.00" timeLoss="81.68" rerouteNo="0" devices="tripinfo_142" vType="DEFAULT_VEHTYPE" speedFactor="0.99" vaporized=""/>
    <tripinfo id="84" depart="84.00" departLane="-gneE26_0" departPos="5.10" departSpeed="0.00" departDelay="0.00" arrival="340.00" arrivalLane="-gneE2_0" arrivalPos="189.60" arrivalSpeed="5.95" duration="256.00" routeLength="1822.93" waitingTime="96.00" waitingCount="1" stopTime="0.00" timeLoss="124.53" rerouteNo="0" devices="tripinfo_84" vType="DEFAULT_VEHTYPE" speedFactor="1.02" vaporized=""/>
    <tripinfo id="71" depart="71.00" departLane="-gneE32_0" departPos="5.10" departSpeed="0.00" departDelay="0.00" arrival="346.00" arrivalLane="gneE43_0" arrivalPos="58.50" arrivalSpeed="15.53" duration="275.00" routeLength="1480.56" waitingTime="147.00" waitingCount="2" stopTime="0.00" timeLoss="179.55" rerouteNo="0" devices="tripinfo_71" vType="DEFAULT_VEHTYPE" speedFactor="1.13" vaporized=""/>
    <tripinfo id="232" depart="232.00" departLane="-gneE9_0" departPos="5.10" departSpeed="0.00" departDelay="0.00" arrival="354.00" arrivalLane="-gneE2_0" arrivalPos="189.60" arrivalSpeed="12.31" duration="122.00" routeLength="783.67" waitingTime="40.00" waitingCount="1" stopTime="0.00" timeLoss="56.87" rerouteNo="0" devices="tripinfo_232" vType="DEFAULT_VEHTYPE" speedFactor="0.89" vaporized=""/>
    <tripinfo id="315" depart="315.00" departLane="gneE6_0" departPos="5.10" departSpeed="0.00" departDelay="0.00" arrival="354.00" arrivalLane="gneE18_0" arrivalPos="95.47" arrivalSpeed="13.61" duration="39.00" routeLength="428.15" waitingTime="0.00" waitingCount="0" stopTime="0.00" timeLoss="7.37" rerouteNo="0" devices="tripinfo_315" vType="DEFAULT_VEHTYPE" speedFactor="0.99" vaporized=""/>
    <tripinfo id="193" depart="193.00" departLane="-gneE21_0" departPos="5.10" departSpeed="0.00" departDelay="0.00" arrival="360.00" arrivalLane="-gneE6_0" arrivalPos="191.47" arrivalSpeed="7.70" duration="167.00" routeLength="923.85" waitingTime="61.00" waitingCount="2" stopTime="0.00" timeLoss="103.94" rerouteNo="0" devices="tripinfo_193" vType="DEFAULT_VEHTYPE" speedFactor="1.09" vaporized=""/>
    <tripinfo id="159" depart="159.00" departLane="-gneE23_0" departPos="5.10" departSpeed="0.00" departDelay="0.00" arrival="361.00" arrivalLane="gneE5_0" arrivalPos="189.60" arrivalSpeed="13.28" duration="202.00" routeLength="1332.34" waitingTime="83.00" waitingCount="2" stopTime="0.00" timeLoss="106.35" rerouteNo="0" devices="tripinfo_159" vType="DEFAULT_VEHTYPE" speedFactor="1.02" vaporized=""/>
    <tripinfo id="215" depart="221.00" departLane="-gneE19_0" departPos="5.10" departSpeed="0.00" departDelay="6.00" arrival="362.00" arrivalLane="-gneE6_0" arrivalPos="191.47" arrivalSpeed="8.64" duration="141.00" routeLength="624.47" waitingTime="58.00" waitingCount="2" stopTime="0.00" timeLoss="97.25" rerouteNo="0" devices="tripinfo_215" vType="DEFAULT_VEHTYPE" speedFactor="1.04" vaporized=""/>
    <tripinfo id="148" depart="148.00" departLane="-gneE43_0" departPos="5.10" departSpeed="0.00" departDelay="0.00" arrival="363.00" arrivalLane="-gneE10_0" arrivalPos="189.60" arrivalSpeed="11.26" duration="215.00" routeLength="1159.43" waitingTime="95.00" waitingCount="1" stopTime="0.00" timeLoss="118.18" rerouteNo="0" devices="tripinfo_148" vType="DEFAULT_VEHTYPE" speedFactor="0.88" vaporized=""/>
    <tripinfo id="339" depart="339.00" departLane="-gneE26_0" departPos="5.10" departSpeed="0.00" departDelay="0.00" arrival="369.00" arrivalLane="-gneE26_0" arrivalPos="296.04" arrivalSpeed="10.13" duration="30.00" routeLength="290.94" waitingTime="0.00" waitingCount="0" stopTime="0.00" timeLoss="4.02" rerouteNo="0" devices="tripinfo_339" vType="DEFAULT_VEHTYPE" speedFactor="0.82" vaporized=""/>
    <tripinfo id="116" depart="116.00" departLane="gneE12_0" departPos="5.10" departSpeed="0.00" departDelay="0.00" arrival="370.00" arrivalLane="gneE27_0" arrivalPos="300.00" arrivalSpeed="15.47" duration="254.00" routeLength="2615.54" waitingTime="18.00" waitingCount="1" stopTime="0.00" timeLoss="89.55" rerouteNo="0" devices="tripinfo_116" vType="DEFAULT_VEHTYPE" speedFactor="1.17" vaporized=""/>
    <tripinfo id="252" depart="252.00" departLane="-gneE11_0" departPos="5.10" departSpeed="0.00" departDelay="0.00" arrival="376.00" arrivalLane="gneE25_0" arrivalPos="96.80" arrivalSpeed="14.13" duration="124.00" routeLength="828.92" waitingTime="47.00" waitingCount="1" stopTime="0.00" timeLoss="67.01" rerouteNo="0" devices="tripinfo_252" vType="DEFAULT_VEHTYPE" speedFactor="1.10" vaporized=""/>
    <tripinfo id="320" depart="320.00" departLane="gneE6_0" departPos="5.10" departSpeed="0.00" departDelay="0.00" arrival="381.00" arrivalLane="gneE19_0" arrivalPos="193.60" arrivalSpeed="12.17" duration="61.00" routeLength="624.33" waitingTime="0.00" waitingCount="0" stopTime="0.00" timeLoss="11.85" rerouteNo="0" devices="tripinfo_320" vType="DEFAULT_VEHTYPE" speedFactor="0.94" vaporized=""/>
    <tripinfo id="22" depart="22.00" departLane="-gneE18_0" departPos="5.10" departSpeed="0.00" departDelay="0.00" arrival="382.00" arrivalLane="-gneE3_0" arrivalPos="189.60" arrivalSpeed="13.37" duration="360.00" routeLength="1217.52" waitingTime="246.00" waitingCount="2" stopTime="0.00" timeLoss="273.26" rerouteNo="0" devices="tripinfo_22" vType="DEFAULT_VEHTYPE" speedFactor="1.05" vaporized=""/>
    <tripinfo id="94" depart="94.00" departLane="-gneE25_0" departPos="5.10" departSpeed="0.00" departDelay="0.00" arrival="382.00" arrivalLane="gneE10_0" arrivalPos="189.60" arrivalSpeed="14.20" duration="288.00" routeLength="1436.67" waitingTime="164.00" waitingCount="1" stopTime="0.00" timeLoss="184.81" rerouteNo="0" devices="tripinfo_94" vType="DEFAULT_VEHTYPE" speedFactor="1.03" vaporized=""/>
    <tripinfo id="259" depart="263.00" departLane="-gneE11_0" departPos="5.10" departSpeed="0.00" departDelay="4.00" arrival="383.00" arrivalLane="gneE19_0" arrivalPos="193.60" arrivalSpeed="12.48" duration="120.00" routeLength="965.71" waitingTime="27.00" waitingCount="1" stopTime="0.00" timeLoss="46.93" rerouteNo="0" devices="tripinfo_259" vType="DEFAULT_VEHTYPE" speedFactor="0.97" vaporized=""/>
    <tripinfo id="56" depart="56.00" departLane="-gneE6_0" departPos="5.10" departSpeed="0.00" departDelay="0.00" arrival="385.00" arrivalLane="-gneE22_0" arrivalPos="92.63" arrivalSpeed="12.47" duration="329.00" routeLength="927.96" waitingTime="232.00" waitingCount="2" stopTime="0.00" timeLoss="257.78" rerouteNo="0" devices="tripinfo_56" vType="DEFAULT_VEHTYPE" speedFactor="0.97" vaporized=""/>
    <tripinfo id="275" depart="275.00" departLane="gneE2_0" departPos="5.10" departSpeed="0.00" departDelay="0.00" arrival="387.00" arrivalLane="gneE24_0" arrivalPos="192.80" arrivalSpeed="13.72" duration="112.00" routeLength="1021.51" waitingTime="24.00" waitingCount="1" stopTime="0.00" timeLoss="42.67" rerouteNo="0" devices="tripinfo_275" vType="DEFAULT_VEHTYPE" speedFactor="1.07" vaporized=""/>
    <tripinfo id="147" depart="147.00" departLane="gneE23_0" departPos="5.10" departSpeed="0.00" departDelay="0.00" arrival="388.00" arrivalLane="gneE19_0" arrivalPos="193.60" arrivalSpeed="13.01" duration="241.00" routeLength="1716.27" waitingTime="67.00" waitingCount="3" stopTime="0.00" timeLoss="106.51" rerouteNo="0" devices="tripinfo_147" vType="DEFAULT_VEHTYPE" speedFactor="0.94" vaporized=""/>